#          distance                  H2                 H2O                  N2                  O2                  OH                   T                 U_x                 U_y                 U_z
  2.80123387794e-21       0.99999999999   7.40187608018e-13   5.32353641326e-13   1.07428058386e-16   1.62399976685e-19       304.896094778       80.0002639583  -1.22222268121e-12    6.0272158405e-18


              0.001      0.999996477301   1.29144828685e-06   1.87966723799e-06    2.6198263803e-10   2.85661015905e-12       309.209291052       78.4925245214  -1.19918448342e-12   5.76718897186e-18


              0.002      0.999539155666   0.000158744492709   0.000293528418191   2.61112471147e-08   4.28355212148e-10       318.452648193       76.3318480672     0.0650872471099    0.00283906584427


              0.003      0.998289862905   0.000587182659227    0.00109809956608   7.55638563682e-08   1.69054906382e-09       326.677523043       75.2451622168  -1.14957228771e-12    5.5285910648e-18


              0.004      0.993011988222    0.00230873316284    0.00462546459736   2.24757014342e-07   5.77018995304e-09       340.657423786       73.2316726285  -1.11881081729e-12    5.3806511811e-18
              0.005      0.980658034023    0.00616835003435     0.0130870711587   4.49775865552e-07   1.11797918343e-08       358.643830045       70.7866485833  -1.08138148799e-12   8.47285411723e-18
              0.006      0.957855874422     0.0130001823665     0.0290264923639   7.07277803439e-07   1.41246211738e-08       380.895898288       67.8312083015  -1.03628749293e-12   4.98385545438e-18
              0.007      0.921993294653     0.0233054335584      0.054557541183   9.45761645966e-07    1.2721648397e-08       407.595000724       64.3598637622   -9.8325404871e-13   4.72880059321e-18
              0.008      0.872106012627     0.0370571471052     0.0906719638106   1.12515517946e-06   8.94072635769e-09       438.842845846       60.4449174342  -9.23392333368e-13   7.33737692586e-18
              0.009      0.811016253232     0.0532676871093      0.135534712954   1.22148287991e-06   5.42590837189e-09       474.121018265       56.1286016872  -8.57481088678e-13   4.12401377876e-18
               0.01      0.741535500017     0.0710867672894      0.187183048212   1.24220286657e-06   3.12627851833e-09       513.501202845       51.7430993921   -7.9048989448e-13   4.89904237801e-18
              0.011       0.66609337829     0.0898109378164       0.24388935916   1.20383053231e-06   2.01982999383e-09       556.960241748       47.4430571176  -7.24797247943e-13   3.48584884317e-18
              0.012      0.588945958319      0.108408716963      0.302428009066   1.12289948681e-06   2.27209432468e-09       603.888535755       43.3491426391  -6.62256603945e-13   3.18505104648e-18
              0.013      0.514313029478      0.125988931853      0.359469656531   1.01637671414e-06   5.09981073226e-09       653.513022714         39.54793231   -6.0419573843e-13   2.90575950345e-18
              0.014      0.445334026497      0.141972761333      0.412453297465   8.98522292612e-07   1.39657949782e-08       705.034917807       36.0878389533   -5.5133343816e-13   2.65153131586e-18
              0.015      0.383782971419      0.156094424954      0.459870557056   7.79630312988e-07   3.63335682044e-08       757.691598261       32.9831897434  -5.03898832701e-13   2.58973186056e-18
              0.016      0.330206903531      0.168332186162      0.501196159622   6.65928622782e-07   8.57420480844e-08       810.825723393       30.2226418656  -4.61732163591e-13   2.22058964125e-18
              0.017      0.284363282064      0.178801085734      0.536557701056   5.60468485857e-07   1.84257179858e-07       863.924882718       27.7818843004   -4.2443768196e-13   2.27433070606e-18
              0.018      0.245526599663      0.187692955278      0.566488968896    4.6421968351e-07    3.6419287249e-07       916.614049533        25.628757963  -3.91548227883e-13   1.88305690495e-18
              0.019      0.212777401745      0.195223284557      0.591694023921   3.77108271797e-07   6.68969156686e-07       968.619654605       23.7291164648   -3.6251521326e-13   2.21806360225e-18
               0.02      0.185208859958       0.20159487647       0.61287696061   2.98883013172e-07   1.15340411607e-06       1019.63530782       22.0511606694  -3.36889115678e-13   1.62019518935e-18
              0.021      0.161962898516      0.206995972086      0.630707659226   2.29544838482e-07   1.87909057896e-06       1069.28870629       20.5648571555  -3.14183519448e-13   1.51098997157e-18
              0.022      0.142296204796      0.211588722102      0.645767295804   1.69549773397e-07   2.91577163605e-06       1117.51832908       19.2444344755  -2.94004991792e-13   1.56816836261e-18
              0.023      0.125594481684      0.215507229777      0.658536053085   1.19690636681e-07   4.34026656652e-06        1164.2764036       18.0678588391  -2.76033743139e-13   1.32752458756e-18
              0.024      0.111330667851      0.218867323517      0.669425136422   8.05960550435e-08   6.22946900109e-06       1209.54224831       17.0152720404  -2.59952716556e-13   1.25018643321e-18
              0.025     0.0990833633623      0.221762187114      0.678762721978   5.24108042278e-08   8.66185085242e-06       1253.30973935       16.0702129306  -2.45514467241e-13   1.18074880829e-18
              0.026     0.0885145597504      0.224267086004      0.686811504056   3.45675421063e-08   1.17167895595e-05       1295.58424298       15.2189568345  -2.32508903757e-13   1.11820330095e-18
              0.027     0.0793394695397      0.226446018426       0.69379222031   2.57985200017e-08   1.54662971997e-05       1336.39478099       14.4492388306  -2.20750996461e-13   1.06164875373e-18
              0.028     0.0713336386019      0.228349732917      0.699878520787   2.46830943595e-08   1.99812231752e-05       1375.77332476       13.7510239816  -2.10081303913e-13   1.12298604292e-18
              0.029     0.0643142066963      0.230019820902      0.705211616526   3.01167572668e-08   2.53285647072e-05       1413.75889244       13.1157722197  -2.00373791128e-13    1.1780788109e-18
               0.03     0.0581277299191      0.231491425171      0.709909752644    4.1663465388e-08   3.15659113055e-05       1450.40166748       12.5359198388  -1.91518732073e-13   9.72073659108e-19
              0.031     0.0526520436127      0.232792629751      0.714066951512   5.97570471637e-08   3.87497508106e-05       1485.74858809       12.0052429823  -1.83408932133e-13    9.7859655067e-19
              0.032     0.0477851433835      0.233946998948      0.717761596134    8.5627223552e-08   4.69303798067e-05       1519.85001261       11.5183127684  -1.75972163133e-13   8.92212287822e-19
              0.033     0.0434412002974       0.23497444786      0.721059545573   1.21191556461e-07   5.61509902023e-05       1552.75968691       11.0703558926  -1.69127346127e-13    8.5706413987e-19
              0.034     0.0395509965822      0.235891068288      0.724013868461   1.69083767592e-07   6.64560776955e-05       1584.52442049       10.6574165472  -1.62819910966e-13   7.83046991474e-19
              0.035     0.0360548190412      0.236710796923      0.726670285986   2.32599595511e-07   7.78839471029e-05        1615.1942563       10.2759282386  -1.56991440022e-13   7.55017377446e-19
              0.036      0.032902392551      0.237445396071      0.729067254896     3.158129568e-07   9.04712303813e-05       1644.81734979       9.92277148187  -1.51594354143e-13   8.03890036689e-19
              0.037     0.0300524887847      0.238104494332       0.73123631102   4.23881766163e-07   0.000104261331799       1673.43559464       9.59532017513  -1.46593645947e-13   7.05010127179e-19
              0.038     0.0274682928147      0.238696706217      0.733205590198   5.63030040045e-07   0.000119293811584       1701.09529586       9.29110298253  -1.41946594257e-13   6.82657959901e-19
              0.039     0.0251188568135      0.239229240011      0.734998757335   7.41007764386e-07   0.000135616035358        1727.8394337       9.00797120109   -1.3762037398e-13   6.61855029973e-19
               0.04     0.0229784995368      0.239708011085      0.736635486191   9.67736278926e-07   0.000153290538215       1753.70567819       8.74409921553  -1.33589640092e-13   6.42467201458e-19
              0.041     0.0210235228358      0.240138468699       0.73813392794   1.25520526779e-06   0.000172380008976       1778.73690998       8.49771781241  -1.29824756259e-13    6.2436448251e-19
              0.042     0.0192343781269       0.24052502799      0.739509095696   1.61877736004e-06   0.000192967000392       1802.96917427       8.26734628099  -1.26305249425e-13   6.07438078836e-19
              0.043     0.0175943532574      0.240871392385      0.740773854267   2.07816576022e-06   0.000215153325106        1826.4338897       8.05169938517  -1.23010092543e-13    6.1788501337e-19
              0.044     0.0160881363742      0.241180932362       0.74193998668    2.6578215057e-06   0.000239049476503       1849.16297941       7.84956017879  -1.19922664985e-13   5.76741507208e-19
              0.045     0.0147030139326      0.241456349154      0.743017312088   3.38965655737e-06   0.000264794707288       1871.18071564       7.65990814568  -1.17025244272e-13   5.62806943114e-19
              0.046     0.0134277621689      0.241699945547      0.744014523973   4.31492377491e-06   0.000292553181425       1892.50849342        7.4818157099  -1.14303235637e-13   5.95255298504e-19
              0.047     0.0122521351817       0.24191375498      0.744939574412   5.48628096439e-06   0.000322509975708       1913.16752383       7.31439614102  -1.11746082002e-13   5.80919822577e-19
              0.048     0.0111675303043       0.24209930905      0.745799211836   6.97393682876e-06   0.000354894315402       1933.17436634       7.15688397702  -1.09338760671e-13   6.08572095424e-19
              0.049     0.0101660744753      0.242257876802      0.746599661187   8.86966776304e-06    0.00038996862219       1952.54597082       7.00854847282   -1.0707405152e-13   5.14948699989e-19
               0.05    0.00924070197579      0.242390428547      0.747346572047   1.12940352363e-05   0.000428031679047       1971.29826478       6.86871146232  -1.04936694717e-13   5.42493530887e-19
              0.051    0.00838549126281      0.242497484959      0.748044795452   1.44109975141e-05   0.000469441502259       1989.44151915        6.7367973319  -1.02922703501e-13    4.9498195548e-19
              0.052    0.00759486337664       0.24257936307      0.748698958358   1.84368667872e-05   0.000514587209589       2006.98563132        6.6122516691  -1.01018702124e-13   5.20274731534e-19
              0.053    0.00686395699872      0.242636027395      0.749313202318   2.36625001011e-05   0.000563902110007       2023.93562053       6.49458140935  -9.92222036411e-14   4.77185292602e-19
              0.054    0.00618870524303      0.242666965634      0.749891171387     3.048986186e-05   0.000617885528542       2040.28967772       6.38336616727  -9.75219700292e-14   5.00388768852e-19
              0.055    0.00556513282426      0.242671451946      0.750436492198   3.94521355706e-05   0.000677041781869       2056.04627544       6.27817441117  -9.59160045361e-14   4.61284924243e-19
              0.056    0.00498987824211      0.242648229886      0.750952463766   5.12807109046e-05   0.000741916348456       2071.19847695       6.17862408508  -9.43947780141e-14   4.68254441731e-19
              0.057    0.00446008957524      0.242595419887      0.751442177079   6.69898538893e-05   0.000813086493124       2085.73367622       6.08437432124  -9.29545233754e-14   4.60704538833e-19
              0.058    0.00397293126944      0.242510737835      0.751908833068   8.79310768729e-05   0.000891065284528        2099.6396071       5.99507286491  -9.15905319754e-14   4.40484215826e-19
              0.059    0.00352608496807      0.242391049767      0.752355484269   0.000115965893286    0.00097632947125        2112.8959398       5.91041737816  -9.02966730782e-14   4.71488483461e-19
               0.06    0.00311751698158      0.242232354647      0.752785210681   0.000153628134389    0.00106923281136       2125.47567906       5.83013229557  -8.90706843757e-14   4.40206246489e-19
              0.061    0.00274524294219      0.242029914845      0.753201232944   0.000204249638835    0.00116987758135       2137.34853817        5.7539428644  -8.79064398423e-14   4.45338515813e-19
              0.062    0.00240763697399      0.241777768919      0.753606792978   0.000272285508357    0.00127808778567       2148.47435585        5.6816121526  -8.68014214523e-14   4.38810273024e-19
              0.063    0.00210312996875      0.241468930316       0.75400526324   0.000363471509866    0.00139325612414       2158.80832518       5.61291052253  -8.57520487821e-14   4.12405077591e-19
              0.064    0.00183014646387      0.241095596856        0.7544000429   0.000484898663867    0.00151423848099       2168.30293047       5.54761339607  -8.47545341583e-14   4.07607412209e-19
              0.065    0.00158724820084      0.240648892357       0.75479443081   0.000645273588543    0.00163934382555       2176.90418729       5.48552565563  -8.38057248752e-14   4.12048574925e-19
              0.066    0.00137280165545      0.240119888005       0.75519145366   0.000854447357174    0.00176630543576       2184.56171255       5.42645425142  -8.29035241647e-14   3.98705320104e-19
              0.067    0.00118502731327      0.239500097999      0.755593603374     0.0011229791631    0.00189243974591       2191.23028978        5.3702213435  -8.20444256577e-14    3.9457364249e-19
              0.068    0.00102208770972      0.238781781896      0.756002637189    0.00146174287252    0.00201484658558       2196.86872497       5.31667697021  -8.12265443732e-14   3.90639503271e-19
              0.069   0.000881798245105      0.237959800438      0.756419351051    0.00188025042405    0.00213073859103       2201.45542914       5.26566783354  -8.04470686223e-14   3.86891638971e-19
               0.07   0.000761775167453      0.237030746672      0.756843943845    0.00238661732665    0.00223780233336       2204.98521175       5.21704966347  -7.97041834124e-14   3.83319449441e-19
              0.071   0.000659632783422      0.235989326365      0.757276949097    0.00298934198119    0.00233482602765       2207.46875341       5.17069176106  -7.89958370681e-14   3.96946092628e-19
              0.072    0.00057340439098      0.234843797326      0.757714466736    0.00368789207879    0.00242020750554       2208.92012842       5.12649727844  -7.83209073174e-14   3.76666169788e-19
              0.073   0.000500840907473      0.233600125712      0.758154077544    0.00448160915728    0.00249347432819       2209.38514198       5.08438619545  -7.76776778483e-14   3.73572084397e-19
              0.074   0.000439752239017      0.232267155381      0.758593173958      0.005366329487    0.00255486124339       2208.93166961       5.04426085004  -7.70643753086e-14   3.82834620294e-19
              0.075   0.000388297933737      0.230854102909       0.75902918432    0.00633685211597    0.00260485374308       2207.62650555       5.00604698012  -7.64807651415e-14   3.67816159722e-19
              0.076    0.00034479040636      0.229371572108      0.759459760357    0.00738587091976    0.00264424217094       2205.54896794       4.96965516367  -7.59246976938e-14   3.68319867765e-19
              0.077   0.000307830532608      0.227829901253      0.759882836344     0.0085057350527    0.00267383737827       2202.77601156        4.9350058981  -7.53954372278e-14   3.62596460811e-19
              0.078    0.00027624354807      0.226239117844      0.760296691785    0.00968853351958    0.00269443537586       2199.38326144       4.90201990071  -7.48913594316e-14   3.62615463344e-19
              0.079   0.000249083938906      0.224608397065      0.760699883526     0.0109268023565     0.0027067247431       2195.43957152       4.87062922456  -7.44118693953e-14    3.6203837135e-19
               0.08   0.000225539775052      0.222946510177      0.761091398144     0.0122128854146    0.00271140703305       2191.01433731       4.84075196652   -7.3955464235e-14   3.55671212349e-19
              0.081   0.000204960997271      0.221261187676      0.761470548865     0.0135397368548    0.00270911570461        2186.1702986       4.81230801281  -7.35208794588e-14   3.55052879535e-19
              0.082   0.000186851509195      0.219558998883       0.76183678114     0.0149013057377    0.00270036535278       2180.95979204       4.78523375691  -7.31072599697e-14     3.528040689e-19
              0.083   0.000170813955687      0.217845729489      0.762189706367     0.0162920899013     0.0026856337883        2175.4293358       4.75946991171  -7.27136413341e-14   3.52584302151e-19
              0.084   0.000156516997655      0.216126453006      0.762529195227     0.0177069442754    0.00266541524437        2169.6219143        4.7349507333  -7.23390918913e-14   3.47897533146e-19
              0.085   0.000143687167117      0.214405459776      0.762855357008     0.0191411818271    0.00264022015562       2163.57642687       4.71160575481   -7.1982429223e-14   3.46672620794e-19
              0.086   0.000132118319503      0.212686312783      0.763168292059     0.0205908492594    0.00261049662556       2157.32436852       4.68937906719  -7.16428648706e-14   3.44872918375e-19
              0.087   0.000121644950903      0.210972060741       0.76346814993     0.0220524323128    0.00257667539843       2150.89284307       4.66822029571  -7.13196206193e-14   3.42994556129e-19
              0.088   0.000112133446322      0.209265305385      0.763755119708     0.0235228029873    0.00253917409774       2144.30520243       4.64808407286  -7.10119915994e-14   3.41427603742e-19
              0.089   0.000103459514531      0.207568116748      0.764029647632     0.0249990381248    0.00249845761187       2137.58424582       4.62891096054  -7.07190725335e-14     3.401063274e-19
               0.09   9.55315071804e-05      0.205882351921      0.764292039097     0.0264786136642    0.00245492179982       2130.74805036       4.61065761087  -7.04402052144e-14    3.3876517399e-19
              0.091   8.82692795999e-05      0.204209492791      0.764542688389     0.0279592879469    0.00240895351211       2123.81269138       4.59327940197   -7.0174700335e-14   3.37488320999e-19
              0.092    8.1603468446e-05      0.202550825576      0.764782003478     0.0294389940351    0.00236093442316       2116.79323136       4.57673097181  -6.99218897328e-14    3.3627243548e-19
              0.093   7.54836703267e-05      0.200907655671      0.765010224407     0.0309158677789    0.00231118357829       2109.70139182       4.56098374142  -6.96813100636e-14   3.35115417611e-19
              0.094   6.98562479881e-05      0.199280792724      0.765227814597      0.032388300982    0.00226003450542       2102.54868577       4.54599666102  -6.94523292606e-14   3.34014251286e-19
              0.095   6.46626826343e-05      0.197670383434      0.765435512764      0.033855076073    0.00220781897204       2095.34675871       4.53170974235  -6.92340748648e-14   3.32964528904e-19
              0.096   5.98913543163e-05      0.196078184241      0.765633065276     0.0353144524478     0.0021547551932       2088.10184954        4.5181335185    -6.902673671e-14   3.27957847611e-19
              0.097    5.5479310199e-05      0.194503422123      0.765821553262     0.0367658213895    0.00210114763794       2080.82493939       4.50518569951  -6.88288566538e-14   3.29941536554e-19
              0.098   5.14131094515e-05      0.192947362515      0.766000913821     0.0382077584289    0.00204720018827       2073.52195899       4.49286400805  -6.86406146637e-14   3.30110362958e-19
              0.099   4.76599083291e-05      0.191410096565      0.766171642833     0.0396394541574    0.00199312873689       2066.20019809         4.481127714  -6.84613697927e-14   3.26765118114e-19
                0.1   4.41897802155e-05      0.189891567956      0.766334237683     0.0410602769975    0.00193911911017       2058.86611093       4.46993656859  -6.82904292438e-14   3.24516140322e-19
              0.101    4.0981944238e-05      0.188392075202      0.766488995158     0.0424694592364    0.00188533547021       2051.52524679       4.45926376547  -6.81272853492e-14   3.27641606225e-19
              0.102    3.8016857977e-05      0.186911847463      0.766636216742     0.0438663137715    0.00183192717002       2044.18284067       4.44908159482  -6.79717558644e-14   3.24059338361e-19
              0.103   3.52767770092e-05      0.185451105868      0.766776185689      0.045250193612    0.00177903031188       2036.84384482       4.43936270935  -6.78232465905e-14   3.26179388618e-19
              0.104   3.27435372988e-05      0.184009872707      0.766909236141     0.0466206218065     0.0017267619113       2029.51290002       4.43007616494  -6.76813708419e-14   3.25497065596e-19
              0.105   3.04001274929e-05      0.182588088003      0.767035704792     0.0479772210308    0.00167522085495       2022.19426428       4.42119012867  -6.75456133027e-14   3.24844169659e-19
              0.106   2.82335352429e-05      0.181185946256      0.767155822802     0.0493194648983     0.0016245037769       2014.89208744       4.41267850124  -6.74157925997e-14   3.13012942381e-19
              0.107   2.62287634567e-05      0.179803270106      0.767269922395     0.0506471295991    0.00157468073849        2007.6099894       4.40450830869  -6.72907453318e-14   3.23618483406e-19
              0.108   2.43726967645e-05      0.178439916606      0.767378300619     0.0519600032098    0.00152581094809       2000.35131586       4.39664757742  -6.71706521321e-14    3.2304092111e-19
              0.109   2.26531573047e-05      0.177095679447       0.76748125002     0.0532579568805    0.00147793977355       1993.11902928       4.38906340326  -6.70547515448e-14   3.22483678674e-19
               0.11   2.10588827683e-05      0.175770295203      0.767579056319     0.0545409396216    0.00143109984649       1985.91572443       4.38172103411  -6.69426099738e-14    3.2194420271e-19