#          distance                  H2                 H2O                  N2                  O2                  OH                   T                 U_x                 U_y                 U_z
  2.80123387794e-21       0.99999999999   7.40187608018e-13   5.32353641326e-13   1.07428058386e-16   1.62399976685e-19       304.896094778       80.0002639583  -1.22222268121e-12    6.0272158405e-18
              5e-06      0.999999999982   2.24541260564e-12   1.79171517505e-12   3.48849471155e-16    4.9252110506e-19       305.047189839       79.8853467398    0.00315582942342   4.36391374425e-18
              1e-05      0.999999999974   3.75063760325e-12   3.05107670878e-12   5.90270883923e-16   8.22642233435e-19       305.198284901       79.7704295213    0.00631165884806   2.71050543121e-18
            1.5e-05      0.999999999966   5.25586260087e-12    4.3104382425e-12   8.31692296692e-16   1.15276336181e-18       305.349379962       79.6555123029     0.0094674882727   1.19262238973e-18
              2e-05      0.999999999958   6.76108759849e-12   5.56979977622e-12   1.07311370946e-15   1.48288449018e-18       305.500475024       79.5405950844     0.0126233176973  -4.87890977618e-19
            2.5e-05       0.99999999995    8.2663125961e-12   6.82916130995e-12   1.31453512223e-15   1.81300561856e-18       305.651570085       79.4256778659      0.015779147122  -2.11419423635e-18
              3e-05      0.999999999942   9.77153759372e-12   8.08852284367e-12     1.555956535e-15   2.14312674693e-18       305.802665147       79.3107606475     0.0189349765466  -3.95733792957e-18
            3.5e-05      0.999999999934   1.12767625913e-11    9.3478843774e-12   1.79737794777e-15   2.47324787531e-18       305.953760208        79.195843429     0.0220908059713  -5.31259064518e-18
              4e-05      0.999999999926    1.2781987589e-11   1.06072459111e-11   2.03879936053e-15   2.80336900368e-18       306.104855269       79.0809262105     0.0252466353959   -7.1557343384e-18
            4.5e-05      0.999999999918   1.42872125866e-11   1.18666074448e-11    2.2802207733e-15   3.13349013206e-18       306.255950331       78.9660089921     0.0284024648205  -8.67361737988e-18
              5e-05       0.99999999991   1.57924375842e-11   1.31259689786e-11   2.52164218607e-15   3.46361126043e-18       306.407045392       78.8510917736     0.0315582942452  -1.04083408559e-17
            5.5e-05      0.999999999902   1.72976625818e-11   1.43853305123e-11   2.76306359884e-15   3.79373238881e-18       306.558140454       78.7361745551     0.0347141236698  -1.19262238973e-17
              6e-05      0.999999999894   1.88028875794e-11    1.5644692046e-11   3.00448501161e-15   4.12385351718e-18       306.709235515       78.6212573367     0.0378699530945  -1.37693675906e-17
            6.5e-05      0.999999999887    2.0308112577e-11   1.69040535797e-11   3.24590642438e-15   4.45397464556e-18       306.860330577       78.5063401182     0.0410257825191  -1.53956708493e-17
              7e-05      0.999999999879   2.18133375747e-11   1.81634151135e-11   3.48732783714e-15   4.78409577393e-18       307.011425638       78.3914228997     0.0441816119437   -1.7021974108e-17
            7.5e-05      0.999999999871   2.33185625723e-11   1.94227766472e-11   3.72874924991e-15   5.11421690231e-18         307.1625207       78.2765056812     0.0473374413684  -1.88651178012e-17
              8e-05      0.999999999863   2.48237875699e-11   2.06821381809e-11   3.97017066268e-15   5.44433803068e-18       307.313615761       78.1615884628      0.050493270793  -2.03830008427e-17
            8.5e-05      0.999999999855   2.63290125675e-11   2.19414997146e-11   4.21159207545e-15   5.77445915905e-18       307.464710823       78.0466712443     0.0536491002177  -2.19008838842e-17
              9e-05      0.999999999847   2.78342375651e-11   2.32008612484e-11   4.45301348822e-15   6.10458028743e-18       307.615805884       77.9317540258     0.0568049296423  -2.38524477947e-17
            9.5e-05      0.999999999839   2.93394625627e-11   2.44602227821e-11   4.69443490099e-15    6.4347014158e-18       307.766900946       77.8168368074     0.0599607590669  -2.55871712707e-17
             0.0001      0.999999999629   9.78321414412e-11   9.08982792217e-11   1.68412123413e-14   2.13510096149e-17       308.149019896       77.5939705087     0.0641962530743   4.70943076587e-05
           0.000105      0.999999999189   2.42261273911e-10   2.31222394231e-10   4.24838082237e-14   5.28021053511e-17       308.793025719       77.2487339774      0.069655646405   0.000147574354001
            0.00011      0.999999998749    3.8669040638e-10    3.7154650924e-10   6.81264041061e-14   8.42532010874e-17       309.437031542        76.903497446     0.0751150397357   0.000248054400343
           0.000115       0.99999999831    5.3111953885e-10   5.11870624249e-10   9.37689999885e-14   1.15704296824e-16       310.081037366       76.5582609147     0.0805744330664   0.000348534446684
            0.00012       0.99999999787    6.7554867132e-10   6.52194739257e-10   1.19411595871e-13    1.4715539256e-16       310.725043189       76.2130243833     0.0860338263971   0.000449014493026
           0.000125      0.999999997431   8.19977803789e-10   7.92518854266e-10   1.45054191753e-13   1.78606488296e-16       311.369049012        75.867787852     0.0914932197278   0.000549494539368
            0.00013      0.999999996991   9.64406936259e-10   9.32842969275e-10   1.70696787636e-13   2.10057584032e-16       312.013054836       75.5225513206     0.0969526130585    0.00052195112965
           0.000135      0.999999996552   1.10883606873e-09   1.07316708428e-09   1.96339383518e-13   2.41508679768e-16       312.657060659       75.1773147893      0.102412006389   0.000466545149284
            0.00014      0.999999996112    1.2532652012e-09   1.21349119929e-09     2.219819794e-13   2.72959775505e-16       313.301066482        74.832078258       0.10787139972   0.000411139168917
           0.000145      0.999999995673   1.39769433367e-09    1.3538153143e-09   2.47624575283e-13   3.04410871241e-16       313.945072305       74.4868417266      0.113330793051    0.00035573318855
            0.00015      0.999999995233   1.54212346614e-09   1.49413942931e-09   2.73267171165e-13   3.35861966977e-16       314.589078129       74.1416051953      0.118790186381   0.000300327208184
           0.000155      0.999999994794   1.68655259861e-09   1.63446354432e-09   2.98909767048e-13   3.67313062713e-16       315.233083952       73.7963686639      0.124249579712   0.000244921227817
            0.00016      0.999999994354   1.83098173108e-09   1.77478765933e-09    3.2455236293e-13    3.9876415845e-16       315.877089775       73.4511321326      0.129708973043   0.000189515247451
           0.000165      0.999999993914   1.97541086355e-09   1.91511177434e-09   3.50194958812e-13   4.30215254186e-16       316.521095598       73.1058956012      0.135168366373   0.000134109267084
            0.00017      0.999999993475   2.11983999602e-09   2.05543588935e-09   3.75837554695e-13   4.61666349922e-16       317.165101422       72.7606590699      0.140627759704   7.87032867179e-05
           0.000175      0.999999993035   2.26426912849e-09   2.19576000436e-09   4.01480150577e-13   4.93117445658e-16       317.809107245       72.4154225386      0.146087153035   2.32973063513e-05
            0.00018      0.999999980614   7.27146359114e-09   7.89203563292e-09   1.39369825362e-12   1.58157928299e-15       318.991597424       71.9531665015      0.155860801259   0.000220293829401
           0.000185        0.9999999595   1.58069673686e-08    1.7619580333e-08   3.08724104205e-12   3.43698350642e-15       320.564799315       71.4060038354      0.168764772394    0.00060042773281
            0.00019      0.999999938385    2.4342471146e-08   2.73471250331e-08   4.78078383048e-12   5.29238772986e-15       322.138001206       70.8588411693       0.18166874353   0.000980561636219
           0.000195       0.99999991727   3.28779749234e-08   3.70746697332e-08   6.47432661891e-12   7.14779195329e-15       323.711203097       70.3116785032      0.194572714665    0.00136069553963
             0.0002      0.999999896156   4.14134787008e-08   4.68022144333e-08   8.16786940734e-12   9.00319617672e-15       325.284404987       69.7645158371      0.207476685801    0.00174082944304
           0.000205      0.999999875041   4.99489824782e-08   5.65297591333e-08   9.86141219577e-12   1.08586004002e-14       326.857606878       69.2173531709      0.220380656937    0.00204605196771
            0.00021      0.999999853927   5.84844862556e-08   6.62573038334e-08   1.15549549842e-11   1.27140046236e-14       328.430808769       68.6701905048      0.233284628072    0.00176755258416
           0.000215      0.999999832812   6.70199900331e-08   7.59848485335e-08   1.32484977726e-11    1.4569408847e-14        330.00401066       68.1230278387      0.246188599208    0.00148905320061
            0.00022      0.999999811697   7.55554938105e-08   8.57123932336e-08   1.49420405611e-11   1.64248130705e-14       331.577212551       67.5758651726      0.259092570343    0.00121055381706
           0.000225      0.999999790583   8.40909975879e-08   9.54399379337e-08   1.66355833495e-11   1.82802172939e-14       333.150414442       67.0287025065      0.271996541479   0.000932054433505
            0.00023      0.999999769468   9.26265013653e-08   1.05167482634e-07   1.83291261379e-11   2.01356215173e-14       334.723616333       66.4815398404      0.284900512614   0.000653555049954
           0.000235      0.999999748354   1.01162005143e-07   1.14895027334e-07   2.00226689263e-11   2.19910257408e-14       336.296818224       65.9343771743       0.29780448375   0.000375055666403
            0.00024      0.999999727239    1.0969750892e-07   1.24622572034e-07   2.17162117148e-11   2.38464299642e-14       337.870020115       65.3872145082      0.310708454885   9.65562828512e-05
           0.000245      0.999999279147   2.91809508698e-07   3.69871900957e-07   6.24326326556e-11   6.42207351062e-14       340.286099549       64.7280956772      0.329183828872   0.000424964279805
            0.00025      0.999998604461   5.66037676551e-07   7.40111448952e-07   1.23858297564e-10   1.25036826048e-13        343.14948983        64.009562276      0.350615918157    0.00107545495245
           0.000255      0.999997929775   8.40265844404e-07   1.11035099695e-06   1.85283962472e-10   1.85852916989e-13       346.012880111       63.2910288748      0.372048007443    0.00172594562509
            0.00026      0.999997255088   1.11449401226e-06   1.48059054494e-06    2.4670962738e-10   2.46669007931e-13       348.876270392       62.5724954736      0.393480096729    0.00237643629773
           0.000265      0.999996580402   1.38872218011e-06   1.85083009294e-06   3.08135292288e-10   3.07485098872e-13       351.739660673       61.8539620724      0.414912186015    0.00302692697038
            0.00027      0.999995905715   1.66295034796e-06   2.22106964093e-06   3.69560957196e-10   3.68301189814e-13       354.603050954       61.1354286713        0.4363442753    0.00259793054268
           0.000275      0.999995231029   1.93717851582e-06   2.59130918893e-06   4.30986622104e-10   4.29117280755e-13       357.466441235       60.4168952701      0.457776364586    0.00206365002162
            0.00028      0.999994556343   2.21140668367e-06   2.96154873692e-06   4.92412287012e-10   4.89933371696e-13       360.329831515       59.6983618689      0.479208453872    0.00152936950057
           0.000285      0.999993881656   2.48563485152e-06   3.33178828492e-06    5.5383795192e-10   5.50749462638e-13       363.193221796       58.9798284677      0.500640543158   0.000995088979512
            0.00029       0.99999320697   2.75986301937e-06   3.70202783291e-06   6.15263616828e-10   6.11565553579e-13       366.056612077       58.2612950665      0.522072632443   0.000460808458456
           0.000295      0.999990952714     3.627886576e-06   5.03681842453e-06   8.29004172287e-10   8.13781965677e-13       369.092642273       57.5180827037      0.544429386071   0.000113805354687
             0.0003      0.999978791578   8.22012758422e-06   1.24211639597e-05   1.99804647689e-09   1.90284518337e-12       373.211450471       56.6200866872       0.57258552976   0.000941385009444
           0.000305      0.999966630441   1.28123685924e-05   1.98055094949e-05   3.16708878149e-09   2.99190840106e-12       377.330258668       55.7220906708      0.600741673449     0.0017689646642
            0.00031      0.999954469305   1.74046096006e-05   2.71898550301e-05   4.33613108609e-09   4.08097161875e-12       381.449066866       54.8240946544      0.628897817139    0.00259654431896
           0.000315      0.999942308169   2.19968506089e-05   3.45742005653e-05   5.50517339069e-09   5.17003483644e-12       385.567875063        53.926098638      0.657053960828    0.00319180058658
            0.00032      0.999930147032   2.65890916171e-05   4.19585461005e-05   6.67421569529e-09   6.25909805413e-12       389.686683261       53.0281026215      0.685210104518    0.00246923560739
           0.000325      0.999917985896   3.11813326253e-05   4.93428916357e-05   7.84325799989e-09   7.34816127182e-12       393.805491458       52.1301066051      0.713366248207    0.00174667062819
            0.00033      0.999905824759   3.57735736335e-05   5.67272371709e-05   9.01230030449e-09   8.43722448952e-12       397.924299656       51.2321105887      0.741522391897    0.00102410564899
           0.000335      0.999893663623   4.03658146417e-05   6.41115827061e-05   1.01813426091e-08   9.52628770721e-12       402.043107853       50.3341145722      0.769678535586   0.000301540669796
            0.00034      0.999818301546    6.6331958927e-05   0.000113021316634   1.76159014607e-08   1.65051192282e-11       406.653804302       49.3226681536      0.800063264638   0.000518233837607
           0.000345      0.999697674496   0.000107606248054   0.000191671835475    2.9537868792e-08   2.77022456065e-11       411.616794692       48.2299677326      0.832044122721    0.00140763051549
            0.00035      0.999577047446   0.000148880537181   0.000270322354316   4.14598361233e-08   3.88993719848e-11       416.579785081       47.1372673115      0.864024980804    0.00229702719338
           0.000355      0.999456420396   0.000190154826309   0.000348972873157   5.33818034546e-08   5.00964983631e-11        421.54277547       46.0445668905      0.896005838887    0.00272235398766
            0.00036      0.999335793346   0.000231429115436   0.000427623391998   6.53037707859e-08   6.12936247414e-11        426.50576586       44.9518664694       0.92798669697    0.00191617953314
           0.000365      0.999215166296   0.000272703404563   0.000506273910839   7.72257381172e-08   7.24907511196e-11       431.468756249       43.8591660484      0.959967555053    0.00111000507862
            0.00037      0.999094539246    0.00031397769369    0.00058492442968   8.91477054486e-08   8.36878774979e-11       436.431746638       42.7664656273      0.991948413136   0.000303830624103
           0.000375      0.998615544048   0.000463824695781   0.000912654305719   1.37171121167e-07   1.32021843376e-10       441.626960788       41.5501181231        1.0254163335   0.000567208576233
            0.00038      0.997919798466   0.000679339300702    0.00139103386026   2.07029632552e-07   2.02817136416e-10       446.962629914       40.2589856447       1.05978366785     0.0014774796632
           0.000385      0.997224052884   0.000894853905623     0.0018694134148   2.76888143936e-07   2.73612429456e-10       452.298299039       38.9678531662       1.09415100219    0.00238775075017
            0.00039      0.996528307301    0.00111036851054    0.00234779296933   3.46746655321e-07   3.44407722496e-10       457.633968164       37.6767206877       1.12851833653    0.00172444967274
           0.000395      0.995832561719    0.00132588311547    0.00282617252387   4.16605166705e-07   4.15203015536e-10       462.969637289       36.3855882093       1.16288567088   0.000878569246157
             0.0004      0.995136816137    0.00154139772039    0.00330455207841    4.8646367809e-07   4.85998308576e-10       468.305306414       35.0944557308       1.19725300522   3.26888195736e-05
           0.000405      0.992660580538    0.00224425833352    0.00507427788102   7.37655099664e-07   7.72887923186e-10       473.688802275       33.6192915012       1.22988354551   0.000737433714541
            0.00041      0.990112772488    0.00296670936741    0.00689591344775   9.96135773529e-07   1.06846413543e-09       479.074220682       32.1367295308       1.26244426985    0.00150451091954
           0.000415      0.987564964437     0.0036891604013    0.00871754901448   1.25461644739e-06   1.36404034767e-09        484.45963909       30.6541675604       1.29500499419    0.00119290529094
            0.00042      0.985017156387    0.00441161143519     0.0105391845812   1.51309712126e-06   1.65961655992e-09       489.845057498       29.1716055899       1.32756571853    0.00046756897046
           0.000425      0.981070340464     0.0054851831194     0.0134078518288   1.91565556567e-06   2.16232365921e-09       495.197634148       27.6288964876        1.3555731648   5.91561499759e-05
            0.00043      0.974585838248    0.00719565905455     0.0181757492352   2.57955934662e-06   3.04074931091e-09       500.490638526       25.9770853885       1.37532133563   0.000225616736061
           0.000435      0.968101336033    0.00890613498971     0.0229436466415   3.24346312758e-06   3.91917496261e-09       505.783642904       24.3252742894       1.39506950647   0.000221841923219
            0.00044      0.961616833818     0.0106166109249     0.0277115440478   3.90736690853e-06   4.79760061432e-09       511.076647283       22.6734631904       1.41481767731   6.24378801833e-05
           0.000445      0.951516342545     0.0131743558367     0.0352466026043   4.94973931105e-06   6.35646505713e-09       516.306918159       20.9463582382        1.4170777733  -0.000665852947785
            0.00045      0.939087464906     0.0162776691951     0.0445634752624   6.23581299812e-06   8.35347363664e-09       521.496794048       19.1707705119       1.40807705121   -0.00152371289092
           0.000455      0.926658587266     0.0193809825536     0.0538803479204   7.52188668519e-06   1.03504822161e-08       526.686669938       17.3951827855       1.39907632911   -0.00046559862442
            0.00046      0.910434180344     0.0233310960412     0.0661446585626   9.21550854645e-06   1.32999325447e-08       531.848960688       15.5842206857       1.36558788258   -0.00166065517965
           0.000465      0.891227247583     0.0279466248315     0.0807250651414    1.1229381648e-05   1.69978113311e-08       536.989575044       13.7454614132        1.3128569891    -0.0026560661979
            0.00047      0.871532004105      0.032668029476     0.0956877652562   1.32978117484e-05   2.08692844335e-08       542.131828129        11.906093918       1.25571473268  -0.000423647798128
           0.000475      0.846227612759     0.0386056132923      0.115041810682   1.59929294548e-05   2.67348079549e-08       547.292905041       10.0597398644       1.14789984863   -0.00485439973303
            0.00048      0.820651336747     0.0446018221638      0.134609046466   1.87204749087e-05   3.27507608265e-08       552.459043076       8.21510958556       1.03604494408  -0.000500603607608
           0.000485      0.791006267131     0.0514753635182      0.157366707009   2.19333063254e-05   4.10179108191e-08       557.700921537       6.39627584701      0.863730544971   -0.00454655060287
            0.00049       0.76048008807     0.0585468491709      0.180807356796    2.5269049329e-05   5.02674706382e-08       562.993174146       4.59204960293      0.660192253705   -0.00467319946879
           0.000495      0.725819360886     0.0665825643393      0.207416691428   2.91045299456e-05   6.21220074056e-08       568.285879417       2.83260068998      0.408705308152    -0.0011645318076
             0.0005      0.660156597208     0.0819581167419      0.257673467621   3.64483043461e-05   8.72907685793e-08       572.850211696       1.33518592421      0.103411814028  -2.81025203108e-16